# vtk DataFile Version 2.0
test
ASCII
DATASET UNSTRUCTURED_GRID
POINTS 32000 float
0.886 0.886 0.886
0.38599998 0.61399996 0.11399999
0.11399999 0.38599998 0.61399996
0.61399996 0.11399999 0.38599998
0.8719 0.13349994 0.12110006
0.12110006 0.8719 0.13349994
0.13349994 0.12110006 0.8719
0.37189993 0.36650005 0.87889993
0.87889993 0.37189993 0.36650005
0.36650005 0.87889993 0.37189993
0.62810004 0.8665 0.6211
0.6211 0.62810004 0.8665
0.8665 0.6211 0.62810004
0.12809993 0.6334999 0.37889993
0.37889993 0.12809993 0.6334999
0.6334999 0.37889993 0.12809993
0.886 1.8859999 0.886
0.38599998 1.614 0.11399999
0.11399999 1.3859999 0.61399996
0.61399996 1.114 0.38599998
0.8719 1.1335 0.12110006
0.12110006 1.8719001 0.13349994
0.13349994 1.1211001 0.8719
0.37189993 1.3665 0.87889993
0.87889993 1.3719 0.36650005
0.36650005 1.8788999 0.37189993
0.62810004 1.8665 0.6211
0.6211 1.6281 0.8665
0.8665 1.6211 0.62810004
0.12809993 1.6334999 0.37889993
0.37889993 1.1280999 0.6334999
0.6334999 1.3788999 0.12809993
0.886 2.886 0.886
0.38599998 2.6139998 0.11399999
0.11399999 2.386 0.61399996
0.61399996 2.114 0.38599998
0.8719 2.1334999 0.12110006
0.12110006 2.8719 0.13349994
0.13349994 2.1211 0.8719
0.37189993 2.3665001 0.87889993
0.87889993 2.3718998 0.36650005
0.36650005 2.8789 0.37189993
0.62810004 2.8665 0.6211
0.6211 2.6281 0.8665
0.8665 2.6211 0.62810004
0.12809993 2.6334999 0.37889993
0.37889993 2.1281 0.6334999
0.6334999 2.3789 0.12809993
0.886 3.886 0.886
0.38599998 3.6139998 0.11399999
0.11399999 3.386 0.61399996
0.61399996 3.114 0.38599998
0.8719 3.1334999 0.12110006
0.12110006 3.8719 0.13349994
0.13349994 3.1211 0.8719
0.37189993 3.3665001 0.87889993
0.87889993 3.3718998 0.36650005
0.36650005 3.8789 0.37189993
0.62810004 3.8665 0.6211
0.6211 3.6281 0.8665
0.8665 3.6211 0.62810004
0.12809993 3.6334999 0.37889993
0.37889993 3.1281 0.6334999
0.6334999 3.3789 0.12809993
0.886 4.886 0.886
0.38599998 4.614 0.11399999
0.11399999 4.386 0.61399996
0.61399996 4.114 0.38599998
0.8719 4.1335 0.12110006
0.12110006 4.8719 0.13349994
0.13349994 4.1211 0.8719
0.37189993 4.3665 0.87889993
0.87889993 4.3719 0.36650005
0.36650005 4.8789 0.37189993
0.62810004 4.8665 0.6211
0.6211 4.6281 0.8665
0.8665 4.6211 0.62810004
0.12809993 4.6335 0.37889993
0.37889993 4.1281 0.6334999
0.6334999 4.3789 0.12809993
0.886 5.886 0.886
0.38599998 5.614 0.11399999
0.11399999 5.386 0.61399996
0.61399996 5.114 0.38599998
0.8719 5.1335 0.12110006
0.12110006 5.8719 0.13349994
0.13349994 5.1211 0.8719
0.37189993 5.3665 0.87889993
0.87889993 5.3719 0.36650005
0.36650005 5.8789 0.37189993
0.62810004 5.8665 0.6211
0.6211 5.6281 0.8665
0.8665 5.6211 0.62810004
0.12809993 5.6335 0.37889993
0.37889993 5.1281 0.6334999
0.6334999 5.3789 0.12809993
0.886 6.886 0.886
0.38599998 6.614 0.11399999
0.11399999 6.386 0.61399996
0.61399996 6.114 0.38599998
0.8719 6.1335 0.12110006
0.12110006 6.8719 0.13349994
0.13349994 6.1211 0.8719
0.37189993 6.3665 0.87889993
0.87889993 6.3719 0.36650005
0.36650005 6.8789 0.37189993
0.62810004 6.8665 0.6211
0.6211 6.6281 0.8665
0.8665 6.6211 0.62810004
0.12809993 6.6335 0.37889993
0.37889993 6.1281 0.6334999
0.6334999 6.3789 0.12809993
0.886 7.886 0.886
0.38599998 7.614 0.11399999
0.11399999 7.386 0.61399996
0.61399996 7.114 0.38599998
0.8719 7.1335 0.12110006
0.12110006 7.8719 0.13349994
0.13349994 7.1211 0.8719
0.37189993 7.3665 0.87889993
0.87889993 7.3719 0.36650005
0.36650005 7.8789 0.37189993
0.62810004 7.8665 0.6211
0.6211 7.6281 0.8665
0.8665 7.6211 0.62810004
0.12809993 7.6335 0.37889993
0.37889993 7.1281 0.6334999
0.6334999 7.3789 0.12809993
0.886 8.886 0.886
0.38599998 8.614 0.11399999
0.11399999 8.386 0.61399996
0.61399996 8.114 0.38599998
0.8719 8.1335 0.12110006
0.12110006 8.8719 0.13349994
0.13349994 8.1211 0.8719
0.37189993 8.3665 0.87889993
0.87889993 8.3719 0.36650005
0.36650005 8.8789 0.37189993
0.62810004 8.8665 0.6211
0.6211 8.6281 0.8665
0.8665 8.6211 0.62810004
0.12809993 8.6335 0.37889993
0.37889993 8.1281 0.6334999
0.6334999 8.3789 0.12809993
0.886 9.886 0.886
0.38599998 9.614 0.11399999
0.11399999 9.386 0.61399996
0.61399996 9.114 0.38599998
0.8719 9.1335 0.12110006
0.12110006 9.8719 0.13349994
0.13349994 9.1211 0.8719
0.37189993 9.3665 0.87889993
0.87889993 9.3719 0.36650005
0.36650005 9.8789 0.37189993
0.62810004 9.8665 0.6211
0.6211 9.6281 0.8665
0.8665 9.6211 0.62810004
0.12809993 9.6335 0.37889993
0.37889993 9.1281 0.6334999
0.6334999 9.3789 0.12809993
1.8859999 0.886 0.886
1.3859999 0.61399996 0.11399999
1.114 0.38599998 0.61399996
1.614 0.11399999 0.38599998
1.8719001 0.13349994 0.12110006
1.1211001 0.8719 0.13349994
1.1335 0.12110006 0.8719
1.3719 0.36650005 0.87889993
1.8788999 0.37189993 0.36650005
1.3665 0.87889993 0.37189993
1.6281 0.8665 0.6211
1.6211 0.62810004 0.8665
1.8665 0.6211 0.62810004
1.1280999 0.6334999 0.37889993
1.3788999 0.12809993 0.6334999
1.6334999 0.37889993 0.12809993
1.8859999 1.8859999 0.886
1.3859999 1.614 0.11399999
1.114 1.3859999 0.61399996
1.614 1.114 0.38599998
1.8719001 1.1335 0.12110006
1.1211001 1.8719001 0.13349994
1.1335 1.1211001 0.8719
1.3719 1.3665 0.87889993
1.8788999 1.3719 0.36650005
1.3665 1.8788999 0.37189993
1.6281 1.8665 0.6211
1.6211 1.6281 0.8665
1.8665 1.6211 0.62810004
1.1280999 1.6334999 0.37889993
1.3788999 1.1280999 0.6334999
1.6334999 1.3788999 0.12809993
1.8859999 2.886 0.886
1.3859999 2.6139998 0.11399999
1.114 2.386 0.61399996
1.614 2.114 0.38599998
1.8719001 2.1334999 0.12110006
1.1211001 2.8719 0.13349994
1.1335 2.1211 0.8719
1.3719 2.3665001 0.87889993
1.8788999 2.3718998 0.36650005
1.3665 2.8789 0.37189993
1.6281 2.8665 0.6211
1.6211 2.6281 0.8665
1.8665 2.6211 0.62810004
1.1280999 2.6334999 0.37889993
1.3788999 2.1281 0.6334999
1.6334999 2.3789 0.12809993
1.8859999 3.886 0.886
1.3859999 3.6139998 0.11399999
1.114 3.386 0.61399996
1.614 3.114 0.38599998
1.8719001 3.1334999 0.12110006
1.1211001 3.8719 0.13349994
1.1335 3.1211 0.8719
1.3719 3.3665001 0.87889993
1.8788999 3.3718998 0.36650005
1.3665 3.8789 0.37189993
1.6281 3.8665 0.6211
1.6211 3.6281 0.8665
1.8665 3.6211 0.62810004
1.1280999 3.6334999 0.37889993
1.3788999 3.1281 0.6334999
1.6334999 3.3789 0.12809993
1.8859999 4.886 0.886
1.3859999 4.614 0.11399999
1.114 4.386 0.61399996
1.614 4.114 0.38599998
1.8719001 4.1335 0.12110006
1.1211001 4.8719 0.13349994
1.1335 4.1211 0.8719
1.3719 4.3665 0.87889993
1.8788999 4.3719 0.36650005
1.3665 4.8789 0.37189993
1.6281 4.8665 0.6211
1.6211 4.6281 0.8665
1.8665 4.6211 0.62810004
1.1280999 4.6335 0.37889993
1.3788999 4.1281 0.6334999
1.6334999 4.3789 0.12809993
1.8859999 5.886 0.886
1.3859999 5.614 0.11399999
1.114 5.386 0.61399996
1.614 5.114 0.38599998
1.8719001 5.1335 0.12110006
1.1211001 5.8719 0.13349994
1.1335 5.1211 0.8719
1.3719 5.3665 0.87889993
1.8788999 5.3719 0.36650005
1.3665 5.8789 0.37189993
1.6281 5.8665 0.6211
1.6211 5.6281 0.8665
1.8665 5.6211 0.62810004
1.1280999 5.6335 0.37889993
1.3788999 5.1281 0.6334999
1.6334999 5.3789 0.12809993
1.8859999 6.886 0.886
1.3859999 6.614 0.11399999
1.114 6.386 0.61399996
1.614 6.114 0.38599998
1.8719001 6.1335 0.12110006
1.1211001 6.8719 0.13349994
1.1335 6.1211 0.8719
1.3719 6.3665 0.87889993
1.8788999 6.3719 0.36650005
1.3665 6.8789 0.37189993
1.6281 6.8665 0.6211
1.6211 6.6281 0.8665
1.8665 6.6211 0.62810004
1.1280999 6.6335 0.37889993
1.3788999 6.1281 0.6334999
1.6334999 6.3789 0.12809993
1.8859999 7.886 0.886
1.3859999 7.614 0.11399999
1.114 7.386 0.61399996
1.614 7.114 0.38599998
1.8719001 7.1335 0.12110006
1.1211001 7.8719 0.13349994
1.1335 7.1211 0.8719
1.3719 7.3665 0.87889993
1.8788999 7.3719 0.36650005
1.3665 7.8789 0.37189993
1.6281 7.8665 0.6211
1.6211 7.6281 0.8665
1.8665 7.6211 0.62810004
1.1280999 7.6335 0.37889993
1.3788999 7.1281 0.6334999
1.6334999 7.3789 0.12809993
1.8859999 8.886 0.886
1.3859999 8.614 0.11399999
1.114 8.386 0.61399996
1.614 8.114 0.38599998
1.8719001 8.1335 0.12110006
1.1211001 8.8719 0.13349994
1.1335 8.1211 0.8719
1.3719 8.3665 0.87889993
1.8788999 8.3719 0.36650005
1.3665 8.8789 0.37189993
1.6281 8.8665 0.6211
1.6211 8.6281 0.8665
1.8665 8.6211 0.62810004
1.1280999 8.6335 0.37889993
1.3788999 8.1281 0.6334999
1.6334999 8.3789 0.12809993
1.8859999 9.886 0.886
1.3859999 9.614 0.11399999
1.114 9.386 0.61399996
1.614 9.114 0.38599998
1.8719001 9.1335 0.12110006
1.1211001 9.8719 0.13349994
1.1335 9.1211 0.8719
1.3719 9.3665 0.87889993
1.8788999 9.3719 0.36650005
1.3665 9.8789 0.37189993
1.6281 9.8665 0.6211
1.6211 9.6281 0.8665
1.8665 9.6211 0.62810004
1.1280999 9.6335 0.37889993
1.3788999 9.1281 0.6334999
1.6334999 9.3789 0.12809993
2.886 0.886 0.886
2.386 0.61399996 0.11399999
2.114 0.38599998 0.61399996
2.6139998 0.11399999 0.38599998
2.8719 0.13349994 0.12110006
2.1211 0.8719 0.13349994
2.1334999 0.12110006 0.8719
2.3718998 0.36650005 0.87889993
2.8789 0.37189993 0.36650005
2.3665001 0.87889993 0.37189993
2.6281 0.8665 0.6211
2.6211 0.62810004 0.8665
2.8665 0.6211 0.62810004
2.1281 0.6334999 0.37889993
2.3789 0.12809993 0.6334999
2.6334999 0.37889993 0.12809993
2.886 1.8859999 0.886
2.386 1.614 0.11399999
2.114 1.3859999 0.61399996
2.6139998 1.114 0.38599998
2.8719 1.1335 0.12110006
2.1211 1.8719001 0.13349994
2.1334999 1.1211001 0.8719
2.3718998 1.3665 0.87889993
2.8789 1.3719 0.36650005
2.3665001 1.8788999 0.37189993
2.6281 1.8665 0.6211
2.6211 1.6281 0.8665
2.8665 1.6211 0.62810004
2.1281 1.6334999 0.37889993
2.3789 1.1280999 0.6334999
2.6334999 1.3788999 0.12809993
2.886 2.886 0.886
2.386 2.6139998 0.11399999
2.114 2.386 0.61399996
2.6139998 2.114 0.38599998
2.8719 2.1334999 0.12110006
2.1211 2.8719 0.13349994
2.1334999 2.1211 0.8719
2.3718998 2.3665001 0.87889993
2.8789 2.3718998 0.36650005
2.3665001 2.8789 0.37189993
2.6281 2.8665 0.6211
2.6211 2.6281 0.8665
2.8665 2.6211 0.62810004
2.1281 2.6334999 0.37889993
2.3789 2.1281 0.6334999
2.6334999 2.3789 0.12809993
2.886 3.886 0.886
2.386 3.6139998 0.11399999
2.114 3.386 0.61399996
2.6139998 3.114 0.38599998
2.8719 3.1334999 0.12110006
2.1211 3.8719 0.13349994
2.1334999 3.1211 0.8719
[...]
POINT_DATA 32000
VECTORS Vectors0 double
0.0 0.9997981966778957 0.020088950187299774
0.0 0.9999616957217589 0.008752547587109057
0.0 0.9999966589351788 0.0025849793963902442
0.0 0.9999030818375337 0.013922174104723684
0.0 0.9998045684267981 0.019769293181696814
0.0 0.9999962298038514 0.0027459748875205857
0.0 0.9999954181878906 0.0030271444012191008
0.0 0.999964442999099 0.008432836859664129
0.0 0.9998014179524253 0.01992798686069178
0.0 0.9999654680523679 0.008310397271418458
0.0 0.9998985794889309 0.014241865608763712
0.0 0.9999008274708487 0.014083153876599393
0.0 0.9998069816140567 0.019646870381550146
0.0 0.9999957813548269 0.0029046983576804385
0.0 0.9999630918837332 0.008591558084798978
0.0 0.9998968281641735 0.01436429696245045
0.0 0.9997981966778957 0.020088950187299774
0.0 0.9999616957217589 0.008752547587109057
0.0 0.9999966589351788 0.0025849793963902442
0.0 0.9999030818375337 0.013922174104723684
0.0 0.9998045684267981 0.019769293181696814
0.0 0.9999962298038514 0.0027459748875205857
0.0 0.9999954181878906 0.0030271444012191008
0.0 0.999964442999099 0.008432836859664129
0.0 0.9998014179524253 0.01992798686069178
0.0 0.9999654680523679 0.008310397271418458
0.0 0.9998985794889309 0.014241865608763712
0.0 0.9999008274708487 0.014083153876599393
0.0 0.9998069816140567 0.019646870381550146
0.0 0.9999957813548269 0.0029046983576804385
0.0 0.9999630918837332 0.008591558084798978
0.0 0.9998968281641735 0.01436429696245045
0.0 0.9997981966778957 0.020088950187299774
0.0 0.9999616957217589 0.008752547587109057
0.0 0.9999966589351788 0.0025849793963902442
0.0 0.9999030818375337 0.013922174104723684
0.0 0.9998045684267981 0.019769293181696814
0.0 0.9999962298038514 0.0027459748875205857
0.0 0.9999954181878906 0.0030271444012191008
0.0 0.999964442999099 0.008432836859664129
0.0 0.9998014179524253 0.01992798686069178
0.0 0.9999654680523679 0.008310397271418458
0.0 0.9998985794889309 0.014241865608763712
0.0 0.9999008274708487 0.014083153876599393
0.0 0.9998069816140567 0.019646870381550146
0.0 0.9999957813548269 0.0029046983576804385
0.0 0.9999630918837332 0.008591558084798978
0.0 0.9998968281641735 0.01436429696245045
0.0 0.9997981966778957 0.020088950187299774
0.0 0.9999616957217589 0.008752547587109057
0.0 0.9999966589351788 0.0025849793963902442
0.0 0.9999030818375337 0.013922174104723684
0.0 0.9998045684267981 0.019769293181696814
0.0 0.9999962298038514 0.0027459748875205857
0.0 0.9999954181878906 0.0030271444012191008
0.0 0.999964442999099 0.008432836859664129
0.0 0.9998014179524253 0.01992798686069178
0.0 0.9999654680523679 0.008310397271418458
0.0 0.9998985794889309 0.014241865608763712
0.0 0.9999008274708487 0.014083153876599393
0.0 0.9998069816140567 0.019646870381550146
0.0 0.9999957813548269 0.0029046983576804385
0.0 0.9999630918837332 0.008591558084798978
0.0 0.9998968281641735 0.01436429696245045
0.0 0.9997981966778957 0.020088950187299774
0.0 0.9999616957217589 0.008752547587109057
0.0 0.9999966589351788 0.0025849793963902442
0.0 0.9999030818375337 0.013922174104723684
0.0 0.9998045684267981 0.019769293181696814
0.0 0.9999962298038514 0.0027459748875205857
0.0 0.9999954181878906 0.0030271444012191008
0.0 0.999964442999099 0.008432836859664129
0.0 0.9998014179524253 0.01992798686069178
0.0 0.9999654680523679 0.008310397271418458
0.0 0.9998985794889309 0.014241865608763712
0.0 0.9999008274708487 0.014083153876599393
0.0 0.9998069816140567 0.019646870381550146
0.0 0.9999957813548269 0.0029046983576804385
0.0 0.9999630918837332 0.008591558084798978
0.0 0.9998968281641735 0.01436429696245045
0.0 0.9997981966778957 0.020088950187299774
0.0 0.9999616957217589 0.008752547587109057
0.0 0.9999966589351788 0.0025849793963902442
0.0 0.9999030818375337 0.013922174104723684
0.0 0.9998045684267981 0.019769293181696814
0.0 0.9999962298038514 0.0027459748875205857
0.0 0.9999954181878906 0.0030271444012191008
0.0 0.999964442999099 0.008432836859664129
0.0 0.9998014179524253 0.01992798686069178
0.0 0.9999654680523679 0.008310397271418458
0.0 0.9998985794889309 0.014241865608763712
0.0 0.9999008274708487 0.014083153876599393
0.0 0.9998069816140567 0.019646870381550146
0.0 0.9999957813548269 0.0029046983576804385
0.0 0.9999630918837332 0.008591558084798978
0.0 0.9998968281641735 0.01436429696245045
0.0 0.9997981966778957 0.020088950187299774
0.0 0.9999616957217589 0.008752547587109057
0.0 0.9999966589351788 0.0025849793963902442
0.0 0.9999030818375337 0.013922174104723684
0.0 0.9998045684267981 0.019769293181696814
0.0 0.9999962298038514 0.0027459748875205857
0.0 0.9999954181878906 0.0030271444012191008
0.0 0.999964442999099 0.008432836859664129
0.0 0.9998014179524253 0.01992798686069178
0.0 0.9999654680523679 0.008310397271418458
0.0 0.9998985794889309 0.014241865608763712
0.0 0.9999008274708487 0.014083153876599393
0.0 0.9998069816140567 0.019646870381550146
0.0 0.9999957813548269 0.0029046983576804385
0.0 0.9999630918837332 0.008591558084798978
0.0 0.9998968281641735 0.01436429696245045
0.0 0.9997981966778957 0.020088950187299774
0.0 0.9999616957217589 0.008752547587109057
0.0 0.9999966589351788 0.0025849793963902442
0.0 0.9999030818375337 0.013922174104723684
0.0 0.9998045684267981 0.019769293181696814
0.0 0.9999962298038514 0.0027459748875205857
0.0 0.9999954181878906 0.0030271444012191008
0.0 0.999964442999099 0.008432836859664129
0.0 0.9998014179524253 0.01992798686069178
0.0 0.9999654680523679 0.008310397271418458
0.0 0.9998985794889309 0.014241865608763712
0.0 0.9999008274708487 0.014083153876599393
0.0 0.9998069816140567 0.019646870381550146
0.0 0.9999957813548269 0.0029046983576804385
0.0 0.9999630918837332 0.008591558084798978
0.0 0.9998968281641735 0.01436429696245045
0.0 0.9997981966778957 0.020088950187299774
0.0 0.9999616957217589 0.008752547587109057
0.0 0.9999966589351788 0.0025849793963902442
0.0 0.9999030818375337 0.013922174104723684
0.0 0.9998045684267981 0.019769293181696814
0.0 0.9999962298038514 0.0027459748875205857
0.0 0.9999954181878906 0.0030271444012191008
0.0 0.999964442999099 0.008432836859664129
0.0 0.9998014179524253 0.01992798686069178
0.0 0.9999654680523679 0.008310397271418458
0.0 0.9998985794889309 0.014241865608763712
0.0 0.9999008274708487 0.014083153876599393
0.0 0.9998069816140567 0.019646870381550146
0.0 0.9999957813548269 0.0029046983576804385
0.0 0.9999630918837332 0.008591558084798978
0.0 0.9998968281641735 0.01436429696245045
0.0 0.9997981966778957 0.020088950187299774
0.0 0.9999616957217589 0.008752547587109057
0.0 0.9999966589351788 0.0025849793963902442
0.0 0.9999030818375337 0.013922174104723684
0.0 0.9998045684267981 0.019769293181696814
0.0 0.9999962298038514 0.0027459748875205857
0.0 0.9999954181878906 0.0030271444012191008
0.0 0.999964442999099 0.008432836859664129
0.0 0.9998014179524253 0.01992798686069178
0.0 0.9999654680523679 0.008310397271418458
0.0 0.9998985794889309 0.014241865608763712
0.0 0.9999008274708487 0.014083153876599393
0.0 0.9998069816140567 0.019646870381550146
0.0 0.9999957813548269 0.0029046983576804385
0.0 0.9999630918837332 0.008591558084798978
0.0 0.9998968281641735 0.01436429696245045
0.0 0.9990856917359358 0.042752550433006034
0.0 0.9995061828606027 0.0314227691877643
0.0 0.9996809764402248 0.0252575799220485
0.0 0.9993303712945945 0.03658973911095917
0.0 0.9990993094241447 0.042433122772158716
0.0 0.9996768970921052 0.025418525140153518
0.0 0.9996697106106338 0.025699604815085382
0.0 0.9995161782787022 0.031103204965686575
0.0 0.99909256170105 0.042591702873137564
0.0 0.9995199792250077 0.030980818743865688
0.0 0.9993186216287845 0.0369092463475778
0.0 0.9993244676077775 0.03675062503457674
0.0 0.999104497782341 0.04231078480832302
0.0 0.9996728499798612 0.025577197132250144
0.0 0.9995112287911527 0.03126185407809093
0.0 0.9993140948764055 0.03703160516842898
0.0 0.9990856917359358 0.042752550433006034
0.0 0.9995061828606027 0.0314227691877643
0.0 0.9996809764402248 0.0252575799220485
0.0 0.9993303712945945 0.03658973911095917
0.0 0.9990993094241447 0.042433122772158716
0.0 0.9996768970921052 0.025418525140153518
0.0 0.9996697106106338 0.025699604815085382
0.0 0.9995161782787022 0.031103204965686575
0.0 0.99909256170105 0.042591702873137564
0.0 0.9995199792250077 0.030980818743865688
0.0 0.9993186216287845 0.0369092463475778
0.0 0.9993244676077775 0.03675062503457674
0.0 0.999104497782341 0.04231078480832302
0.0 0.9996728499798612 0.025577197132250144
0.0 0.9995112287911527 0.03126185407809093
0.0 0.9993140948764055 0.03703160516842898
0.0 0.9990856917359358 0.042752550433006034
0.0 0.9995061828606027 0.0314227691877643
0.0 0.9996809764402248 0.0252575799220485
0.0 0.9993303712945945 0.03658973911095917
0.0 0.9990993094241447 0.042433122772158716
0.0 0.9996768970921052 0.025418525140153518
0.0 0.9996697106106338 0.025699604815085382
0.0 0.9995161782787022 0.031103204965686575
0.0 0.99909256170105 0.042591702873137564
0.0 0.9995199792250077 0.030980818743865688
0.0 0.9993186216287845 0.0369092463475778
0.0 0.9993244676077775 0.03675062503457674
0.0 0.999104497782341 0.04231078480832302
0.0 0.9996728499798612 0.025577197132250144
0.0 0.9995112287911527 0.03126185407809093
0.0 0.9993140948764055 0.03703160516842898
0.0 0.9990856917359358 0.042752550433006034
0.0 0.9995061828606027 0.0314227691877643
0.0 0.9996809764402248 0.0252575799220485
0.0 0.9993303712945945 0.03658973911095917
0.0 0.9990993094241447 0.042433122772158716
0.0 0.9996768970921052 0.025418525140153518
0.0 0.9996697106106338 0.025699604815085382
0.0 0.9995161782787022 0.031103204965686575
0.0 0.99909256170105 0.042591702873137564
0.0 0.9995199792250077 0.030980818743865688
0.0 0.9993186216287845 0.0369092463475778
0.0 0.9993244676077775 0.03675062503457674
0.0 0.999104497782341 0.04231078480832302
0.0 0.9996728499798612 0.025577197132250144
0.0 0.9995112287911527 0.03126185407809093
0.0 0.9993140948764055 0.03703160516842898
0.0 0.9990856917359358 0.042752550433006034
0.0 0.9995061828606027 0.0314227691877643
0.0 0.9996809764402248 0.0252575799220485
0.0 0.9993303712945945 0.03658973911095917
0.0 0.9990993094241447 0.042433122772158716
0.0 0.9996768970921052 0.025418525140153518
0.0 0.9996697106106338 0.025699604815085382
0.0 0.9995161782787022 0.031103204965686575
0.0 0.99909256170105 0.042591702873137564
0.0 0.9995199792250077 0.030980818743865688
0.0 0.9993186216287845 0.0369092463475778
0.0 0.9993244676077775 0.03675062503457674
0.0 0.999104497782341 0.04231078480832302
0.0 0.9996728499798612 0.025577197132250144
0.0 0.9995112287911527 0.03126185407809093
0.0 0.9993140948764055 0.03703160516842898
0.0 0.9990856917359358 0.042752550433006034
0.0 0.9995061828606027 0.0314227691877643
0.0 0.9996809764402248 0.0252575799220485
0.0 0.9993303712945945 0.03658973911095917
0.0 0.9990993094241447 0.042433122772158716
0.0 0.9996768970921052 0.025418525140153518
0.0 0.9996697106106338 0.025699604815085382
0.0 0.9995161782787022 0.031103204965686575
0.0 0.99909256170105 0.042591702873137564
0.0 0.9995199792250077 0.030980818743865688
0.0 0.9993186216287845 0.0369092463475778
0.0 0.9993244676077775 0.03675062503457674
0.0 0.999104497782341 0.04231078480832302
0.0 0.9996728499798612 0.025577197132250144
0.0 0.9995112287911527 0.03126185407809093
0.0 0.9993140948764055 0.03703160516842898
0.0 0.9990856917359358 0.042752550433006034
0.0 0.9995061828606027 0.0314227691877643
0.0 0.9996809764402248 0.0252575799220485
0.0 0.9993303712945945 0.03658973911095917
0.0 0.9990993094241447 0.042433122772158716
0.0 0.9996768970921052 0.025418525140153518
0.0 0.9996697106106338 0.025699604815085382
0.0 0.9995161782787022 0.031103204965686575
0.0 0.99909256170105 0.042591702873137564
0.0 0.9995199792250077 0.030980818743865688
0.0 0.9993186216287845 0.0369092463475778
0.0 0.9993244676077775 0.03675062503457674
0.0 0.999104497782341 0.04231078480832302
0.0 0.9996728499798612 0.025577197132250144
0.0 0.9995112287911527 0.03126185407809093
0.0 0.9993140948764055 0.03703160516842898
0.0 0.9990856917359358 0.042752550433006034
0.0 0.9995061828606027 0.0314227691877643
0.0 0.9996809764402248 0.0252575799220485
0.0 0.9993303712945945 0.03658973911095917
0.0 0.9990993094241447 0.042433122772158716
0.0 0.9996768970921052 0.025418525140153518
0.0 0.9996697106106338 0.025699604815085382
0.0 0.9995161782787022 0.031103204965686575
0.0 0.99909256170105 0.042591702873137564
0.0 0.9995199792250077 0.030980818743865688
0.0 0.9993186216287845 0.0369092463475778
0.0 0.9993244676077775 0.03675062503457674
0.0 0.999104497782341 0.04231078480832302
0.0 0.9996728499798612 0.025577197132250144
0.0 0.9995112287911527 0.03126185407809093
0.0 0.9993140948764055 0.03703160516842898
0.0 0.9990856917359358 0.042752550433006034
0.0 0.9995061828606027 0.0314227691877643
0.0 0.9996809764402248 0.0252575799220485
0.0 0.9993303712945945 0.03658973911095917
0.0 0.9990993094241447 0.042433122772158716
0.0 0.9996768970921052 0.025418525140153518
0.0 0.9996697106106338 0.025699604815085382
0.0 0.9995161782787022 0.031103204965686575
0.0 0.99909256170105 0.042591702873137564
0.0 0.9995199792250077 0.030980818743865688
0.0 0.9993186216287845 0.0369092463475778
0.0 0.9993244676077775 0.03675062503457674
0.0 0.999104497782341 0.04231078480832302
0.0 0.9996728499798612 0.025577197132250144
0.0 0.9995112287911527 0.03126185407809093
0.0 0.9993140948764055 0.03703160516842898
0.0 0.9990856917359358 0.042752550433006034
0.0 0.9995061828606027 0.0314227691877643
0.0 0.9996809764402248 0.0252575799220485
0.0 0.9993303712945945 0.03658973911095917
0.0 0.9990993094241447 0.042433122772158716
0.0 0.9996768970921052 0.025418525140153518
0.0 0.9996697106106338 0.025699604815085382
0.0 0.9995161782787022 0.031103204965686575
0.0 0.99909256170105 0.042591702873137564
0.0 0.9995199792250077 0.030980818743865688
0.0 0.9993186216287845 0.0369092463475778
0.0 0.9993244676077775 0.03675062503457674
0.0 0.999104497782341 0.04231078480832302
0.0 0.9996728499798612 0.025577197132250144
0.0 0.9995112287911527 0.03126185407809093
0.0 0.9993140948764055 0.03703160516842898
0.0 0.9978595103545412 0.06539417095579164
0.0 0.9985367773812933 0.054076836233100556
0.0 0.9988513113381678 0.047917197727147656
0.0 0.9982438586983606 0.0592384889325125
0.0 0.9978803670344404 0.06507513416974632
0.0 0.9988435841323343 0.0480780036781112
0.0 0.9988300264836205 0.048358848153465604
0.0 0.9985540159638836 0.053757578092768016
0.0 0.9978700253288898 0.06523352320794024
0.0 0.9985605905473735 0.05363531491173412
0.0 0.9982248677572559 0.059557647628233415
0.0 0.9982343085476097 0.05939920233871308
0.0 0.9978883280448536 0.06495294259574926
0.0 0.9988359403062741 0.0482365458183038
0.0 0.9985454703521602 0.05391607959767673
0.0 0.9982175677242647 0.05967987505560851
0.0 0.9978595103545412 0.06539417095579164
0.0 0.9985367773812933 0.054076836233100556
0.0 0.9988513113381678 0.047917197727147656
0.0 0.9982438586983606 0.0592384889325125
0.0 0.9978803670344404 0.06507513416974632
0.0 0.9988435841323343 0.0480780036781112
0.0 0.9988300264836205 0.048358848153465604
0.0 0.9985540159638836 0.053757578092768016
0.0 0.9978700253288898 0.06523352320794024
0.0 0.9985605905473735 0.05363531491173412
0.0 0.9982248677572559 0.059557647628233415
0.0 0.9982343085476097 0.05939920233871308
0.0 0.9978883280448536 0.06495294259574926
0.0 0.9988359403062741 0.0482365458183038
0.0 0.9985454703521602 0.05391607959767673
0.0 0.9982175677242647 0.05967987505560851
0.0 0.9978595103545412 0.06539417095579164
0.0 0.9985367773812933 0.054076836233100556
0.0 0.9988513113381678 0.047917197727147656
0.0 0.9982438586983606 0.0592384889325125
0.0 0.9978803670344404 0.06507513416974632
0.0 0.9988435841323343 0.0480780036781112
0.0 0.9988300264836205 0.048358848153465604
0.0 0.9985540159638836 0.053757578092768016
0.0 0.9978700253288898 0.06523352320794024
0.0 0.9985605905473735 0.05363531491173412
0.0 0.9982248677572559 0.059557647628233415
0.0 0.9982343085476097 0.05939920233871308
0.0 0.9978883280448536 0.06495294259574926
0.0 0.9988359403062741 0.0482365458183038
0.0 0.9985454703521602 0.05391607959767673
0.0 0.9982175677242647 0.05967987505560851
0.0 0.9978595103545412 0.06539417095579164
0.0 0.9985367773812933 0.054076836233100556
0.0 0.9988513113381678 0.047917197727147656
0.0 0.9982438586983606 0.0592384889325125
0.0 0.9978803670344404 0.06507513416974632
0.0 0.9988435841323343 0.0480780036781112
0.0 0.9988300264836205 0.048358848153465604
0.0 0.9985540159638836 0.053757578092768016
0.0 0.9978700253288898 0.06523352320794024
0.0 0.9985605905473735 0.05363531491173412
0.0 0.9982248677572559 0.059557647628233415
0.0 0.9982343085476097 0.05939920233871308
0.0 0.9978883280448536 0.06495294259574926
0.0 0.9988359403062741 0.0482365458183038
0.0 0.9985454703521602 0.05391607959767673
0.0 0.9982175677242647 0.05967987505560851
0.0 0.9978595103545412 0.06539417095579164
0.0 0.9985367773812933 0.054076836233100556
0.0 0.9988513113381678 0.047917197727147656
0.0 0.9982438586983606 0.0592384889325125
0.0 0.9978803670344404 0.06507513416974632
0.0 0.9988435841323343 0.0480780036781112
0.0 0.9988300264836205 0.048358848153465604
0.0 0.9985540159638836 0.053757578092768016
0.0 0.9978700253288898 0.06523352320794024
0.0 0.9985605905473735 0.05363531491173412
0.0 0.9982248677572559 0.059557647628233415
0.0 0.9982343085476097 0.05939920233871308
0.0 0.9978883280448536 0.06495294259574926
0.0 0.9988359403062741 0.0482365458183038
0.0 0.9985454703521602 0.05391607959767673
0.0 0.9982175677242647 0.05967987505560851
0.0 0.9978595103545412 0.06539417095579164
0.0 0.9985367773812933 0.054076836233100556
0.0 0.9988513113381678 0.047917197727147656
0.0 0.9982438586983606 0.0592384889325125
0.0 0.9978803670344404 0.06507513416974632
0.0 0.9988435841323343 0.0480780036781112
0.0 0.9988300264836205 0.048358848153465604
0.0 0.9985540159638836 0.053757578092768016
0.0 0.9978700253288898 0.06523352320794024
0.0 0.9985605905473735 0.05363531491173412
0.0 0.9982248677572559 0.059557647628233415
0.0 0.9982343085476097 0.05939920233871308
0.0 0.9978883280448536 0.06495294259574926
0.0 0.9988359403062741 0.0482365458183038
0.0 0.9985454703521602 0.05391607959767673
0.0 0.9982175677242647 0.05967987505560851
0.0 0.9978595103545412 0.06539417095579164
0.0 0.9985367773812933 0.054076836233100556
0.0 0.9988513113381678 0.047917197727147656
0.0 0.9982438586983606 0.0592384889325125
0.0 0.9978803670344404 0.06507513416974632
0.0 0.9988435841323343 0.0480780036781112
0.0 0.9988300264836205 0.048358848153465604
0.0 0.9985540159638836 0.053757578092768016
0.0 0.9978700253288898 0.06523352320794024
0.0 0.9985605905473735 0.05363531491173412
0.0 0.9982248677572559 0.059557647628233415
0.0 0.9982343085476097 0.05939920233871308
0.0 0.9978883280448536 0.06495294259574926
0.0 0.9988359403062741 0.0482365458183038
0.0 0.9985454703521602 0.05391607959767673
0.0 0.9982175677242647 0.05967987505560851
0.0 0.9978595103545412 0.06539417095579164
0.0 0.9985367773812933 0.054076836233100556
0.0 0.9988513113381678 0.047917197727147656
0.0 0.9982438586983606 0.0592384889325125
0.0 0.9978803670344404 0.06507513416974632
0.0 0.9988435841323343 0.0480780036781112
0.0 0.9988300264836205 0.048358848153465604
0.0 0.9985540159638836 0.053757578092768016
0.0 0.9978700253288898 0.06523352320794024
0.0 0.9985605905473735 0.05363531491173412
0.0 0.9982248677572559 0.059557647628233415
0.0 0.9982343085476097 0.05939920233871308
0.0 0.9978883280448536 0.06495294259574926
0.0 0.9988359403062741 0.0482365458183038
0.0 0.9985454703521602 0.05391607959767673
0.0 0.9982175677242647 0.05967987505560851
0.0 0.9978595103545412 0.06539417095579164
0.0 0.9985367773812933 0.054076836233100556
0.0 0.9988513113381678 0.047917197727147656
0.0 0.9982438586983606 0.0592384889325125
0.0 0.9978803670344404 0.06507513416974632
0.0 0.9988435841323343 0.0480780036781112
0.0 0.9988300264836205 0.048358848153465604
0.0 0.9985540159638836 0.053757578092768016
0.0 0.9978700253288898 0.06523352320794024
0.0 0.9985605905473735 0.05363531491173412
0.0 0.9982248677572559 0.059557647628233415