# vtk DataFile Version 2.0
test
ASCII
DATASET UNSTRUCTURED_GRID
POINTS 86 double
0.0 0.0 0.27566444771089604
0.137832223855448 0.0 0.23873241463784303
0.1193662073189215 0.06891611192772398 0.23873241463784303
0.06891611192772401 0.11936620731892149 0.23873241463784303
8.439789588196792e-18 0.137832223855448 0.23873241463784303
-0.06891611192772397 0.1193662073189215 0.23873241463784303
-0.11936620731892147 0.06891611192772404 0.23873241463784303
-0.137832223855448 1.6879579176393585e-17 0.23873241463784303
-0.11936620731892152 -0.06891611192772396 0.23873241463784303
-0.06891611192772405 -0.11936620731892146 0.23873241463784303
-2.5319368764590377e-17 -0.137832223855448 0.23873241463784303
0.0689161119277239 -0.11936620731892154 0.23873241463784303
0.11936620731892146 -0.06891611192772405 0.23873241463784303
0.238732414637843 0.0 0.13783222385544805
0.22433508837758284 0.08165129467091804 0.13783222385544805
0.18287963962569542 0.1534542381597549 0.13783222385544805
0.11936620731892153 0.206748335783172 0.13783222385544805
0.04145544875188746 0.23510553283067293 0.13783222385544805
-0.04145544875188743 0.23510553283067293 0.13783222385544805
-0.11936620731892146 0.20674833578317203 0.13783222385544805
-0.18287963962569537 0.15345423815975492 0.13783222385544805
-0.22433508837758284 0.08165129467091808 0.13783222385544805
-0.238732414637843 2.923628874389532e-17 0.13783222385544805
-0.22433508837758284 -0.08165129467091801 0.13783222385544805
-0.18287963962569542 -0.1534542381597549 0.13783222385544805
-0.1193662073189216 -0.20674833578317195 0.13783222385544805
-0.04145544875188744 -0.23510553283067293 0.13783222385544805
0.04145544875188736 -0.23510553283067295 0.13783222385544805
0.11936620731892153 -0.206748335783172 0.13783222385544805
0.18287963962569534 -0.15345423815975495 0.13783222385544805
0.2243350883775828 -0.08165129467091821 0.13783222385544805
0.27566444771089604 0.0 1.6879579176393588e-17
0.26627140943366695 0.07134720912524788 1.6879579176393588e-17
0.23873241463784303 0.137832223855448 1.6879579176393588e-17
0.19492420030841906 0.19492420030841903 1.6879579176393588e-17
0.13783222385544805 0.238732414637843 1.6879579176393588e-17
0.07134720912524793 0.2662714094336669 1.6879579176393588e-17
1.6879579176393588e-17 0.27566444771089604 1.6879579176393588e-17
-0.07134720912524785 0.26627140943366695 1.6879579176393588e-17
-0.13783222385544797 0.23873241463784303 1.6879579176393588e-17
-0.19492420030841903 0.19492420030841906 1.6879579176393588e-17
-0.23873241463784298 0.1378322238554481 1.6879579176393588e-17
-0.2662714094336669 0.07134720912524795 1.6879579176393588e-17
-0.27566444771089604 3.3759158352787176e-17 1.6879579176393588e-17
-0.26627140943366695 -0.07134720912524777 1.6879579176393588e-17
-0.23873241463784306 -0.13783222385544794 1.6879579176393588e-17
-0.19492420030841914 -0.19492420030841892 1.6879579176393588e-17
-0.13783222385544813 -0.23873241463784295 1.6879579176393588e-17
-0.07134720912524808 -0.26627140943366684 1.6879579176393588e-17
-5.063873752918076e-17 -0.27566444771089604 1.6879579176393588e-17
0.07134720912524775 -0.26627140943366695 1.6879579176393588e-17
0.13783222385544783 -0.23873241463784312 1.6879579176393588e-17
0.194924200308419 -0.1949242003084191 1.6879579176393588e-17
0.23873241463784295 -0.13783222385544813 1.6879579176393588e-17
0.26627140943366684 -0.0713472091252481 1.6879579176393588e-17
0.23873241463784303 0.0 -0.13783222385544797
0.22433508837758287 0.08165129467091806 -0.13783222385544797
0.18287963962569542 0.1534542381597549 -0.13783222385544797
0.11936620731892154 0.20674833578317203 -0.13783222385544797
0.04145544875188747 0.23510553283067295 -0.13783222385544797
-0.04145544875188744 0.23510553283067295 -0.13783222385544797
-0.11936620731892147 0.20674833578317206 -0.13783222385544797
-0.1828796396256954 0.15345423815975495 -0.13783222385544797
-0.22433508837758287 0.08165129467091808 -0.13783222385544797
-0.23873241463784303 2.923628874389532e-17 -0.13783222385544797
-0.22433508837758287 -0.08165129467091803 -0.13783222385544797
-0.18287963962569542 -0.1534542381597549 -0.13783222385544797
-0.11936620731892161 -0.20674833578317198 -0.13783222385544797
-0.04145544875188745 -0.23510553283067295 -0.13783222385544797
0.041455448751887364 -0.23510553283067298 -0.13783222385544797
0.11936620731892154 -0.20674833578317203 -0.13783222385544797
0.18287963962569537 -0.15345423815975498 -0.13783222385544797
0.22433508837758281 -0.08165129467091822 -0.13783222385544797
0.137832223855448 0.0 -0.23873241463784303
0.1193662073189215 0.06891611192772398 -0.23873241463784303
0.06891611192772401 0.11936620731892149 -0.23873241463784303
8.439789588196792e-18 0.137832223855448 -0.23873241463784303
-0.06891611192772397 0.1193662073189215 -0.23873241463784303
-0.11936620731892147 0.06891611192772404 -0.23873241463784303
-0.137832223855448 1.6879579176393585e-17 -0.23873241463784303
-0.11936620731892152 -0.06891611192772396 -0.23873241463784303
-0.06891611192772405 -0.11936620731892146 -0.23873241463784303
-2.5319368764590377e-17 -0.137832223855448 -0.23873241463784303
0.0689161119277239 -0.11936620731892154 -0.23873241463784303
0.11936620731892146 -0.06891611192772405 -0.23873241463784303
3.3759158352787176e-17 0.0 -0.27566444771089604
CELLS 0 0

CELL_TYPES 0

POINT_DATA 86
VECTORS Vectors0 double
0.0 0.0 1.0
-4.100700576349117e-17 0.4527100529678014 0.8916577863406401
-0.22620919128553424 0.39180581244561224 0.8918058124456122
-0.3920584064187149 0.22635502648390085 0.8916577863406399
-0.45241838257106853 1.0252855856488754e-16 0.8918058124456122
-0.392058406418715 -0.22635502648390057 0.8916577863406401
-0.22620919128553432 -0.39180581244561197 0.8918058124456123
-2.0503502881745583e-17 -0.45271005296780137 0.8916577863406401
0.22620919128553416 -0.39180581244561224 0.8918058124456122
0.3920584064187148 -0.22635502648390096 0.8916577863406399
0.4524183825710685 -1.6404569370382007e-16 0.8918058124456122
0.3920584064187152 0.2263550264839004 0.89165778634064
0.22620919128553443 0.39180581244561197 0.8918058124456122
0.0 0.8709895255928112 0.4913015838643405
-0.29109226055841186 0.816978693206939 0.49780629836199936
-0.5619781723886167 0.660582639092093 0.49780629836199947
-0.7542990555935312 0.4354947627964058 0.49130158386434025
-0.8530704329470282 0.15639605411484628 0.49780629836199924
-0.8530704329470283 -0.15639605411484575 0.4978062983619994
-0.7542990555935313 -0.43549476279640537 0.4913015838643405
-0.5619781723886168 -0.6605826390920928 0.49780629836199963
-0.2910922605584118 -0.8169786932069389 0.4978062983619996
-1.0999696582582956e-16 -0.8709895255928112 0.4913015838643405
0.29109226055841175 -0.8169786932069389 0.4978062983619996
0.5619781723886167 -0.660582639092093 0.49780629836199947
0.7542990555935309 -0.43549476279640614 0.49130158386434014
0.8530704329470284 -0.1563960541148462 0.49780629836199924
0.8530704329470284 0.15639605411484545 0.4978062983619993
0.7542990555935312 0.4354947627964056 0.4913015838643405
0.5619781723886168 0.6605826390920927 0.4978062983619995
0.2910922605584123 0.8169786932069388 0.4978062983619994
7.541244143140378e-17 0.941796347892656 -0.33618393640395017
-0.18186710675153997 0.9269618818546921 -0.32812501439273395
-0.47364502093823124 0.8203772410170405 -0.32037724101704096
-0.711838984650223 0.6209824754869556 -0.3281250143927343
-0.8156195624664471 0.47089817394632805 -0.33618393640395067
-0.8937060914017622 0.30597940636773663 -0.3281250143927349
-0.9472900418764618 6.440340596983287e-16 -0.3203772410170412
-0.8937060914017628 -0.3059794063677357 -0.32812501439273395
-0.8156195624664474 -0.4708981739463279 -0.33618393640395006
-0.7118389846502231 -0.620982475486956 -0.3281250143927337
-0.4736450209382314 -0.8203772410170406 -0.3203772410170407
-0.18186710675154003 -0.9269618818546919 -0.32812501439273417
-7.541244143140378e-17 -0.941796347892656 -0.33618393640395017
0.18186710675153964 -0.9269618818546921 -0.32812501439273406
0.4736450209382311 -0.8203772410170405 -0.3203772410170412
0.7118389846502228 -0.6209824754869561 -0.3281250143927344
0.8156195624664467 -0.47089817394632827 -0.3361839364039505
0.893706091401762 -0.3059794063677372 -0.32812501439273484
0.9472900418764618 -6.440340596983289e-16 -0.32037724101704124
0.8937060914017629 0.3059794063677355 -0.32812501439273406
0.8156195624664474 0.47089817394632744 -0.33618393640395033
0.7118389846502231 0.6209824754869558 -0.3281250143927341
0.4736450209382315 0.8203772410170406 -0.3203772410170407
0.18186710675154047 0.9269618818546921 -0.328125014392734
3.814350697370223e-16 0.3459859683996653 -0.938239686684882
0.17966052812133623 0.18405956294666562 -0.9663561310009086
-0.24923052138194254 -0.06356079993707253 -0.9663561310009081
-0.29963263798707 0.17299298419983272 -0.9382396866848822
-0.06956999326060541 0.24762036288373918 -0.9663561310009083
-0.0695699932606057 -0.24762036288373843 -0.9663561310009086
-0.2996326379870701 -0.17299298419983278 -0.9382396866848821
-0.2492305213819422 0.0635607999370721 -0.9663561310009083
0.17966052812133584 -0.1840595629466663 -0.9663561310009083
-2.288610418422134e-16 -0.3459859683996653 -0.938239686684882
-0.17966052812133573 -0.18405956294666606 -0.9663561310009086
0.24923052138194254 0.06356079993707253 -0.9663561310009081
0.29963263798707 -0.17299298419983222 -0.9382396866848822
0.06956999326060506 -0.24762036288373906 -0.9663561310009083
0.06956999326060508 0.24762036288373798 -0.9663561310009084
0.29963263798707024 0.17299298419983253 -0.9382396866848821
0.2492305213819419 -0.06356079993707241 -0.9663561310009083
-0.17966052812133607 0.18405956294666542 -0.9663561310009087
6.769615384367264e-16 -0.14708365285353436 -0.9891240564576624
0.47364502093823047 -0.8203772410170413 -0.32037724101703985
0.12737817985257244 -0.07354182642676695 -0.9891240564576624
0.9472900418764622 3.0054922785921996e-16 -0.32037724101704007
0.12737817985257252 0.07354182642676664 -0.9891240564576624
0.47364502093823074 0.8203772410170408 -0.32037724101704096
-3.760897435759591e-16 0.14708365285353436 -0.9891240564576624
-0.47364502093823085 0.820377241017041 -0.3203772410170401
-0.12737817985257177 0.07354182642676807 -0.9891240564576624
-0.9472900418764622 -5.152272477586629e-16 -0.3203772410170401
-0.12737817985257333 -0.07354182642676534 -0.9891240564576624
-0.4736450209382306 -0.8203772410170411 -0.3203772410170407
1.1953924633533134e-15 -0.2793315294843919 -0.9601947180837386
SCALARS Scalars0 double 1
LOOKUP_TABLE default
1.0 1.3443678393084415 1.5098208161767586 1.5100712192432555 1.344224195016681 1.5100712192432555 1.5098208161767586 1.3443678393084415 1.5098208161767586 1.5100712192432555 1.344224195016681 1.5100712192432555 1.5098208161767586 1.3622911094571517 1.60587725212735 1.7203671098427094 1.6810954022542772 1.5072727854238739 1.5072727854238734 1.681095402254277 1.7203671098427091 1.6058772521273503 1.3622911094571517 1.6058772521273503 1.7203671098427094 1.6810954022542772 1.5072727854238739 1.5072727854238732 1.6810954022542772 1.720367109842709 1.6058772521273506 1.2779802842966062 1.436954002998966 1.6143995029723126 1.660946474529913 1.6227016728167258 1.5278105121622336 1.2676672828935036 1.5278105121622325 1.6227016728167254 1.6609464745299127 1.6143995029723126 1.436954002998966 1.2779802842966062 1.4369540029989658 1.6143995029723126 1.6609464745299132 1.6227016728167256 1.527810512162234 1.2676672828935036 1.5278105121622325 1.6227016728167252 1.6609464745299132 1.6143995029723128 1.4369540029989665 1.2842256550845477 1.3300762220689104 1.2791474523199233 1.4108653088717849 1.2835464871452529 1.2835464871452527 1.410865308871785 1.2791474523199227 1.3300762220689104 1.2842256550845474 1.3300762220689104 1.2791474523199233 1.4108653088717844 1.2835464871452524 1.2835464871452515 1.4108653088717849 1.2791474523199227 1.3300762220689102 1.1362077093111975 1.6143995029723115 1.1900440627370017 1.2676672828935025 1.1900440627370017 1.6143995029723124 1.136207709311197 1.614399502972312 1.1900440627370024 1.2676672828935027 1.190044062737001 1.6143995029723124 1.2395262475681317